timeNow 0.100000
nAtom 4
nBond 2
nAtomType 2
nBondType 1
region[1] 20.00000000000000
region[2] 15.00000000000000
Atoms
1 2 0 0.00 -1.0002130952380952 -0.0000250000000000 -0.0041371882086168 -0.0005000000000000
2 2 0 0.00 1.0000249999999999 -0.0000250000000000 0.0002488095277167 -0.0004875298373670
3 3 0 0.60 2.9997835497835497 0.0000000000000000 -0.0038365327712841 -0.0000124701626330
4 3 0 0.50 4.0004545454545450 0.0000000000000000 0.0087249114521842 0.0000000000000000
Bonds
1 1 1 2 1.00 2.1000000000000001
2 1 2 3 1.00 2.1000000000000001
