ITEM: TIMESTEP
0.000000
ITEM: NUMBER OF ENTRIES
1
ITEM: BOX BOUNDS pp ff pp
-10.000000 10.000000 xlo xhi
-7.500000 7.500000 ylo yhi
-0.100000 0.100000 zlo zhi
ITEM: ENTRIES index, atom1 atom2 xij yij discDragx1 discDragy1
1 3 4 -1.0000000000000000 0.0000000000000000 -0.0000000000000000 -0.0000000000000000
ITEM: TIMESTEP
0.100000
ITEM: NUMBER OF ENTRIES
1
ITEM: BOX BOUNDS pp ff pp
-10.000000 10.000000 xlo xhi
-7.500000 7.500000 ylo yhi
-0.100000 0.100000 zlo zhi
ITEM: ENTRIES index, atom1 atom2 xij yij discDragx1 discDragy1
1 3 4 -1.0006709956709954 0.0000000000000000 0.0067099567099567 -0.0000000000000000
