ITEM: TIMESTEP
0.100000
ITEM: NUMBER OF ATOMS
4
ITEM: BOX BOUNDS pp pp pp
-10.000000 10.000000 xlo xhi
-7.500000 7.500000 ylo yhi
-0.100000 0.100000 zlo zhi
ITEM: ATOMS id mol type radius x y vx vy fx fy
1	 2	 0	 0.00	 -1.0002130952380952	 -0.0000250000000000	 -0.0041371882086168	 -0.0005000000000000	 -0.0401247165532881	 -0.0050000000000000
2	 2	 0	 0.00	 1.0000249999999999	 -0.0000250000000000	 0.0002488095277167	 -0.0004875298373670	 -0.0000238094456656	 -0.0047505967473403
3	 3	 0	 0.60	 2.9997835497835497	 0.0000000000000000	 -0.0038365327712841	 -0.0000124701626330	 -0.0334406121356394	 -0.0002494032526597
4	 3	 0	 0.50	 4.0004545454545450	 0.0000000000000000	 0.0087249114521842	 0.0000000000000000	 0.0835891381345930	 0.0000000000000000
