ITEM: TIMESTEP
0.000000
ITEM: NUMBER OF ENTRIES
2
ITEM: BOX BOUNDS pp ff pp
-10.000000 10.000000 xlo xhi
-7.500000 7.500000 ylo yhi
-0.100000 0.100000 zlo zhi
ITEM: ENTRIES BondID, BondType, atom1 atom2 BondLength BondLengthEqul nodeDragx1 nodeDragy1
1 1 1 2 2.0000000000000000 2.1000000000000001 -0.0000000000000000 -0.0000000000000000
2 1 2 3 2.0000000000000000 2.1000000000000001 -0.0000000000000000 -0.0000000000000000
ITEM: TIMESTEP
0.100000
ITEM: NUMBER OF ENTRIES
2
ITEM: BOX BOUNDS pp ff pp
-10.000000 10.000000 xlo xhi
-7.500000 7.500000 ylo yhi
-0.100000 0.100000 zlo zhi
ITEM: ENTRIES BondID, BondType, atom1 atom2 BondLength BondLengthEqul nodeDragx1 nodeDragy1
1 1 1 2 2.0002380952380951 2.1000000000000001 0.0023809523809524 -0.0000000000000000
2 1 2 3 1.9997585499398187 2.1000000000000001 -0.0024145021645022 0.0002500000000000
